
     Program PWSCF v.7.0 starts on  3Oct2025 at 17: 0:23 

     This program is part of the open-source Quantum ESPRESSO suite
     for quantum simulation of materials; please cite
         "P. Giannozzi et al., J. Phys.:Condens. Matter 21 395502 (2009);
         "P. Giannozzi et al., J. Phys.:Condens. Matter 29 465901 (2017);
         "P. Giannozzi et al., J. Chem. Phys. 152 154105 (2020);
          URL http://www.quantum-espresso.org", 
     in publications or presentations arising from this work. More details at
     http://www.quantum-espresso.org/quote

     Parallel version (MPI & OpenMP), running on       4 processor cores
     Number of MPI processes:                 1
     Threads/MPI process:                     4

     MPI processes distributed on     1 nodes
     3145 MiB available memory on the printing compute node when the environment starts

     Reading input from espresso.pwi
Warning: card &CELL ignored
Warning: card / ignored
Warning: card &FCP ignored
Warning: card / ignored
Warning: card &RISM ignored
Warning: card / ignored

     Current dimensions of program PWSCF are:
     Max number of different atomic species (ntypx) = 10
     Max number of k-points (npk) =  40000
     Max angular momentum in pseudopotentials (lmaxx) =  4
     file Fe.pbe-spn-kjpaw_psl.1.0.0.UPF: wavefunction(s)  3P 3D renormalized
     file Mn.pbe-spn-kjpaw_psl.0.3.1.UPF: wavefunction(s)  3P 3D renormalized
     file O.pbe-n-kjpaw_psl.1.0.0.UPF: wavefunction(s)  2S 2P renormalized
     file Zn.pbe-dnl-kjpaw_psl.1.0.0.UPF: wavefunction(s)  4S 3D renormalized

     gamma-point specific algorithms are used
     Message from routine setup:
     using ibrav=0 with symmetry is DISCOURAGED, use correct ibrav instead

     Subspace diagonalization in iterative solution of the eigenvalue problem:
     a serial algorithm will be used


     G-vector sticks info
     --------------------
     sticks:   dense  smooth     PW     G-vecs:    dense   smooth      PW
     Sum       20533    6845   1709              2213253   425969   52971

     Using Slab Decomposition



     bravais-lattice index     =            0
     lattice parameter (alat)  =      15.4564  a.u.
     unit-cell volume          =    3692.5730 (a.u.)^3
     number of atoms/cell      =           56
     number of atomic types    =            4
     number of electrons       =       550.00
     number of Kohn-Sham states=          330
     kinetic-energy cutoff     =      90.0000  Ry
     charge density cutoff     =    1080.0000  Ry
     scf convergence threshold =      2.2E-08
     mixing beta               =       0.4000
     number of iterations used =            8  plain     mixing
     Exchange-correlation= SLA  PW   PBX  PBC
                           (   1   4   3   4   0   0   0)

     celldm(1)=  15.456448  celldm(2)=   0.000000  celldm(3)=   0.000000
     celldm(4)=   0.000000  celldm(5)=   0.000000  celldm(6)=   0.000000

     crystal axes: (cart. coord. in units of alat)
               a(1) = (   1.000000   0.000000   0.000000 )  
               a(2) = (   0.000000   1.000000   0.000000 )  
               a(3) = (   0.000000   0.000000   1.000000 )  

     reciprocal axes: (cart. coord. in units 2 pi/alat)
               b(1) = (  1.000000  0.000000  0.000000 )  
               b(2) = (  0.000000  1.000000  0.000000 )  
               b(3) = (  0.000000  0.000000  1.000000 )  


     PseudoPot. # 1 for Fe read from file:
     ./pseudos/Fe.pbe-spn-kjpaw_psl.1.0.0.UPF
     MD5 check sum: fc81f059e5c5069939230b1155715ae8
     Pseudo is Projector augmented-wave + core cor, Zval = 16.0
     Generated using &quot;atomic&quot; code by A. Dal Corso  v.6.3
     Shape of augmentation charge: PSQ
     Using radial grid of 1191 points,  6 beta functions with: 
                l(1) =   0
                l(2) =   0
                l(3) =   1
                l(4) =   1
                l(5) =   2
                l(6) =   2
     Q(r) pseudized with 0 coefficients 


     PseudoPot. # 2 for Mn read from file:
     ./pseudos/Mn.pbe-spn-kjpaw_psl.0.3.1.UPF
     MD5 check sum: ba19e6d7ccbc12830efad05ba8577d9c
     Pseudo is Projector augmented-wave + core cor, Zval = 15.0
     Generated using &quot;atomic&quot; code by A. Dal Corso  v.6.2.2
     Shape of augmentation charge: PSQ
     Using radial grid of 1187 points,  6 beta functions with: 
                l(1) =   0
                l(2) =   0
                l(3) =   1
                l(4) =   1
                l(5) =   2
                l(6) =   2
     Q(r) pseudized with 0 coefficients 


     PseudoPot. # 3 for O  read from file:
     ./pseudos/O.pbe-n-kjpaw_psl.1.0.0.UPF
     MD5 check sum: e99d9cef9b487d1ca56f5b95ecd0fd7a
     Pseudo is Projector augmented-wave + core cor, Zval =  6.0
     Generated using &quot;atomic&quot; code by A. Dal Corso  v.6.3
     Shape of augmentation charge: PSQ
     Using radial grid of 1095 points,  4 beta functions with: 
                l(1) =   0
                l(2) =   0
                l(3) =   1
                l(4) =   1
     Q(r) pseudized with 0 coefficients 


     PseudoPot. # 4 for Zn read from file:
     ./pseudos/Zn.pbe-dnl-kjpaw_psl.1.0.0.UPF
     MD5 check sum: c608214d9520ac179f507641260889e3
     Pseudo is Projector augmented-wave + core cor, Zval = 12.0
     Generated using &quot;atomic&quot; code by A. Dal Corso  v.6.2.2
     Shape of augmentation charge: PSQ
     Using radial grid of 1201 points,  6 beta functions with: 
                l(1) =   0
                l(2) =   0
                l(3) =   1
                l(4) =   1
                l(5) =   2
                l(6) =   2
     Q(r) pseudized with 0 coefficients 


     atomic species   valence    mass     pseudopotential
        Fe            16.00    55.84500     Fe( 1.00)
        Mn            15.00    54.93804     Mn( 1.00)
        O              6.00    15.99900     O ( 1.00)
        Zn            12.00    65.38000     Zn( 1.00)

     Starting magnetic structure 
     atomic species   magnetization
        Fe           0.000
        Mn           0.000
        O            0.000
        Zn           0.000

     12 Sym. Ops., with inversion, found ( 6 have fractional translation)


                                    s                        frac. trans.

      isym =  1     identity                                     

 cryst.   s( 1) = (     1          0          0      )
                  (     0          1          0      )
                  (     0          0          1      )

 cart.    s( 1) = (  1.0000000  0.0000000  0.0000000 )
                  (  0.0000000  1.0000000  0.0000000 )
                  (  0.0000000  0.0000000  1.0000000 )


      isym =  2     180 deg rotation - cart. axis [1,-1,0]       

 cryst.   s( 2) = (     0         -1          0      )    f =(  0.2500000 )
                  (    -1          0          0      )       (  0.2500000 )
                  (     0          0         -1      )       ( -0.2500000 )

 cart.    s( 2) = (  0.0000000 -1.0000000  0.0000000 )    f =(  0.2500000 )
                  ( -1.0000000  0.0000000  0.0000000 )       (  0.2500000 )
                  (  0.0000000  0.0000000 -1.0000000 )       ( -0.2500000 )


      isym =  3     180 deg rotation - cart. axis [1,0,1]        

 cryst.   s( 3) = (     0          0          1      )    f =(  0.2500000 )
                  (     0         -1          0      )       (  0.2500000 )
                  (     1          0          0      )       ( -0.2500000 )

 cart.    s( 3) = (  0.0000000  0.0000000  1.0000000 )    f =(  0.2500000 )
                  (  0.0000000 -1.0000000  0.0000000 )       (  0.2500000 )
                  (  1.0000000  0.0000000  0.0000000 )       ( -0.2500000 )


      isym =  4     180 deg rotation - cart. axis [0,1,1]        

 cryst.   s( 4) = (    -1          0          0      )    f =(  0.2500000 )
                  (     0          0          1      )       (  0.2500000 )
                  (     0          1          0      )       ( -0.2500000 )

 cart.    s( 4) = ( -1.0000000  0.0000000  0.0000000 )    f =(  0.2500000 )
                  (  0.0000000  0.0000000  1.0000000 )       (  0.2500000 )
                  (  0.0000000  1.0000000  0.0000000 )       ( -0.2500000 )


      isym =  5     120 deg rotation - cart. axis [1,1,-1]       

 cryst.   s( 5) = (     0          0         -1      )
                  (     1          0          0      )
                  (     0         -1          0      )

 cart.    s( 5) = (  0.0000000  1.0000000  0.0000000 )
                  (  0.0000000  0.0000000 -1.0000000 )
                  ( -1.0000000  0.0000000  0.0000000 )


      isym =  6     120 deg rotation - cart. axis [-1,-1,1]      

 cryst.   s( 6) = (     0          1          0      )
                  (     0          0         -1      )
                  (    -1          0          0      )

 cart.    s( 6) = (  0.0000000  0.0000000 -1.0000000 )
                  (  1.0000000  0.0000000  0.0000000 )
                  (  0.0000000 -1.0000000  0.0000000 )


      isym =  7     inversion                                    

 cryst.   s( 7) = (    -1          0          0      )    f =(  0.2500000 )
                  (     0         -1          0      )       (  0.2500000 )
                  (     0          0         -1      )       ( -0.2500000 )

 cart.    s( 7) = ( -1.0000000  0.0000000  0.0000000 )    f =(  0.2500000 )
                  (  0.0000000 -1.0000000  0.0000000 )       (  0.2500000 )
                  (  0.0000000  0.0000000 -1.0000000 )       ( -0.2500000 )


      isym =  8     inv. 180 deg rotation - cart. axis [1,-1,0]  

 cryst.   s( 8) = (     0          1          0      )
                  (     1          0          0      )
                  (     0          0          1      )

 cart.    s( 8) = (  0.0000000  1.0000000  0.0000000 )
                  (  1.0000000  0.0000000  0.0000000 )
                  (  0.0000000  0.0000000  1.0000000 )


      isym =  9     inv. 180 deg rotation - cart. axis [1,0,1]   

 cryst.   s( 9) = (     0          0         -1      )
                  (     0          1          0      )
                  (    -1          0          0      )

 cart.    s( 9) = (  0.0000000  0.0000000 -1.0000000 )
                  (  0.0000000  1.0000000  0.0000000 )
                  ( -1.0000000  0.0000000  0.0000000 )


      isym = 10     inv. 180 deg rotation - cart. axis [0,1,1]   

 cryst.   s(10) = (     1          0          0      )
                  (     0          0         -1      )
                  (     0         -1          0      )

 cart.    s(10) = (  1.0000000  0.0000000  0.0000000 )
                  (  0.0000000  0.0000000 -1.0000000 )
                  (  0.0000000 -1.0000000  0.0000000 )


      isym = 11     inv. 120 deg rotation - cart. axis [1,1,-1]  

 cryst.   s(11) = (     0          0          1      )    f =(  0.2500000 )
                  (    -1          0          0      )       (  0.2500000 )
                  (     0          1          0      )       ( -0.2500000 )

 cart.    s(11) = (  0.0000000 -1.0000000  0.0000000 )    f =(  0.2500000 )
                  (  0.0000000  0.0000000  1.0000000 )       (  0.2500000 )
                  (  1.0000000  0.0000000  0.0000000 )       ( -0.2500000 )


      isym = 12     inv. 120 deg rotation - cart. axis [-1,-1,1] 

 cryst.   s(12) = (     0         -1          0      )    f =(  0.2500000 )
                  (     0          0          1      )       (  0.2500000 )
                  (     1          0          0      )       ( -0.2500000 )

 cart.    s(12) = (  0.0000000  0.0000000  1.0000000 )    f =(  0.2500000 )
                  ( -1.0000000  0.0000000  0.0000000 )       (  0.2500000 )
                  (  0.0000000  1.0000000  0.0000000 )       ( -0.2500000 )


   Cartesian axes

     site n.     atom                  positions (alat units)
         1           Fe  tau(   1) = (   0.3750000   0.3750000   0.6250000  )
         2           Fe  tau(   2) = (   0.3750000   0.1250000   0.8750000  )
         3           Fe  tau(   3) = (   0.1250000   0.1250000   0.6250000  )
         4           Fe  tau(   4) = (   0.8750000   0.3750000   0.1250000  )
         5           Fe  tau(   5) = (   0.6250000   0.3750000   0.3750000  )
         6           Fe  tau(   6) = (   0.6250000   0.1250000   0.1250000  )
         7           Fe  tau(   7) = (   0.1250000   0.6250000   0.1250000  )
         8           Fe  tau(   8) = (   0.3750000   0.6250000   0.3750000  )
         9           Fe  tau(   9) = (   0.1250000   0.8750000   0.3750000  )
        10           Fe  tau(  10) = (   0.8750000   0.8750000   0.6250000  )
        11           Fe  tau(  11) = (   0.8750000   0.6250000   0.8750000  )
        12           Fe  tau(  12) = (   0.6250000   0.8750000   0.8750000  )
        13           Fe  tau(  13) = (   0.8750000   0.1250000   0.3750000  )
        14           Fe  tau(  14) = (   0.3750000   0.8750000   0.1250000  )
        15           Fe  tau(  15) = (   0.1250000   0.3750000   0.8750000  )
        16           Fe  tau(  16) = (   0.6250000   0.6250000   0.6250000  )
        17           Mn  tau(  17) = (   0.0000000   0.0000000   0.0000000  )
        18           Mn  tau(  18) = (   0.7500000   0.7500000   0.2500000  )
        19           O   tau(  19) = (   0.8886500   0.6113500   0.1113500  )
        20           O   tau(  20) = (   0.1113500   0.8886500   0.6113500  )
        21           O   tau(  21) = (   0.6113500   0.1113500   0.8886500  )
        22           O   tau(  22) = (   0.3886500   0.3886500   0.3886500  )
        23           O   tau(  23) = (   0.3613500   0.1386500   0.6386500  )
        24           O   tau(  24) = (   0.6386500   0.3613500   0.1386500  )
        25           O   tau(  25) = (   0.8613500   0.8613500   0.8613500  )
        26           O   tau(  26) = (   0.1386500   0.6386500   0.3613500  )
        27           O   tau(  27) = (   0.3613500   0.6386500   0.1386500  )
        28           O   tau(  28) = (   0.1386500   0.3613500   0.6386500  )
        29           O   tau(  29) = (   0.6386500   0.1386500   0.3613500  )
        30           O   tau(  30) = (   0.8886500   0.1113500   0.6113500  )
        31           O   tau(  31) = (   0.6113500   0.8886500   0.1113500  )
        32           O   tau(  32) = (   0.1113500   0.6113500   0.8886500  )
        33           O   tau(  33) = (   0.1113500   0.3886500   0.1113500  )
        34           O   tau(  34) = (   0.6113500   0.6113500   0.3886500  )
        35           O   tau(  35) = (   0.3886500   0.8886500   0.8886500  )
        36           O   tau(  36) = (   0.6386500   0.8613500   0.6386500  )
        37           O   tau(  37) = (   0.8613500   0.3613500   0.3613500  )
        38           O   tau(  38) = (   0.1386500   0.1386500   0.8613500  )
        39           O   tau(  39) = (   0.1386500   0.8613500   0.1386500  )
        40           O   tau(  40) = (   0.6386500   0.6386500   0.8613500  )
        41           O   tau(  41) = (   0.6113500   0.3886500   0.6113500  )
        42           O   tau(  42) = (   0.1113500   0.1113500   0.3886500  )
        43           O   tau(  43) = (   0.3886500   0.6113500   0.6113500  )
        44           O   tau(  44) = (   0.8886500   0.3886500   0.8886500  )
        45           O   tau(  45) = (   0.8613500   0.1386500   0.1386500  )
        46           O   tau(  46) = (   0.3613500   0.8613500   0.3613500  )
        47           O   tau(  47) = (   0.8613500   0.6386500   0.6386500  )
        48           O   tau(  48) = (   0.3886500   0.1113500   0.1113500  )
        49           O   tau(  49) = (   0.8886500   0.8886500   0.3886500  )
        50           O   tau(  50) = (   0.3613500   0.3613500   0.8613500  )
        51           Zn  tau(  51) = (   0.0000000   0.5000000   0.5000000  )
        52           Zn  tau(  52) = (   0.5000000   0.5000000   0.0000000  )
        53           Zn  tau(  53) = (   0.5000000   0.0000000   0.5000000  )
        54           Zn  tau(  54) = (   0.2500000   0.2500000   0.2500000  )
        55           Zn  tau(  55) = (   0.2500000   0.7500000   0.7500000  )
        56           Zn  tau(  56) = (   0.7500000   0.2500000   0.7500000  )

   Crystallographic axes

     site n.     atom                  positions (cryst. coord.)
         1           Fe  tau(   1) = (  0.3750000  0.3750000  0.6250000  )
         2           Fe  tau(   2) = (  0.3750000  0.1250000  0.8750000  )
         3           Fe  tau(   3) = (  0.1250000  0.1250000  0.6250000  )
         4           Fe  tau(   4) = (  0.8750000  0.3750000  0.1250000  )
         5           Fe  tau(   5) = (  0.6250000  0.3750000  0.3750000  )
         6           Fe  tau(   6) = (  0.6250000  0.1250000  0.1250000  )
         7           Fe  tau(   7) = (  0.1250000  0.6250000  0.1250000  )
         8           Fe  tau(   8) = (  0.3750000  0.6250000  0.3750000  )
         9           Fe  tau(   9) = (  0.1250000  0.8750000  0.3750000  )
        10           Fe  tau(  10) = (  0.8750000  0.8750000  0.6250000  )
        11           Fe  tau(  11) = (  0.8750000  0.6250000  0.8750000  )
        12           Fe  tau(  12) = (  0.6250000  0.8750000  0.8750000  )
        13           Fe  tau(  13) = (  0.8750000  0.1250000  0.3750000  )
        14           Fe  tau(  14) = (  0.3750000  0.8750000  0.1250000  )
        15           Fe  tau(  15) = (  0.1250000  0.3750000  0.8750000  )
        16           Fe  tau(  16) = (  0.6250000  0.6250000  0.6250000  )
        17           Mn  tau(  17) = (  0.0000000  0.0000000  0.0000000  )
        18           Mn  tau(  18) = (  0.7500000  0.7500000  0.2500000  )
        19           O   tau(  19) = (  0.8886500  0.6113500  0.1113500  )
        20           O   tau(  20) = (  0.1113500  0.8886500  0.6113500  )
        21           O   tau(  21) = (  0.6113500  0.1113500  0.8886500  )
        22           O   tau(  22) = (  0.3886500  0.3886500  0.3886500  )
        23           O   tau(  23) = (  0.3613500  0.1386500  0.6386500  )
        24           O   tau(  24) = (  0.6386500  0.3613500  0.1386500  )
        25           O   tau(  25) = (  0.8613500  0.8613500  0.8613500  )
        26           O   tau(  26) = (  0.1386500  0.6386500  0.3613500  )
        27           O   tau(  27) = (  0.3613500  0.6386500  0.1386500  )
        28           O   tau(  28) = (  0.1386500  0.3613500  0.6386500  )
        29           O   tau(  29) = (  0.6386500  0.1386500  0.3613500  )
        30           O   tau(  30) = (  0.8886500  0.1113500  0.6113500  )
        31           O   tau(  31) = (  0.6113500  0.8886500  0.1113500  )
        32           O   tau(  32) = (  0.1113500  0.6113500  0.8886500  )
        33           O   tau(  33) = (  0.1113500  0.3886500  0.1113500  )
        34           O   tau(  34) = (  0.6113500  0.6113500  0.3886500  )
        35           O   tau(  35) = (  0.3886500  0.8886500  0.8886500  )
        36           O   tau(  36) = (  0.6386500  0.8613500  0.6386500  )
        37           O   tau(  37) = (  0.8613500  0.3613500  0.3613500  )
        38           O   tau(  38) = (  0.1386500  0.1386500  0.8613500  )
        39           O   tau(  39) = (  0.1386500  0.8613500  0.1386500  )
        40           O   tau(  40) = (  0.6386500  0.6386500  0.8613500  )
        41           O   tau(  41) = (  0.6113500  0.3886500  0.6113500  )
        42           O   tau(  42) = (  0.1113500  0.1113500  0.3886500  )
        43           O   tau(  43) = (  0.3886500  0.6113500  0.6113500  )
        44           O   tau(  44) = (  0.8886500  0.3886500  0.8886500  )
        45           O   tau(  45) = (  0.8613500  0.1386500  0.1386500  )
        46           O   tau(  46) = (  0.3613500  0.8613500  0.3613500  )
        47           O   tau(  47) = (  0.8613500  0.6386500  0.6386500  )
        48           O   tau(  48) = (  0.3886500  0.1113500  0.1113500  )
        49           O   tau(  49) = (  0.8886500  0.8886500  0.3886500  )
        50           O   tau(  50) = (  0.3613500  0.3613500  0.8613500  )
        51           Zn  tau(  51) = (  0.0000000  0.5000000  0.5000000  )
        52           Zn  tau(  52) = (  0.5000000  0.5000000  0.0000000  )
        53           Zn  tau(  53) = (  0.5000000  0.0000000  0.5000000  )
        54           Zn  tau(  54) = (  0.2500000  0.2500000  0.2500000  )
        55           Zn  tau(  55) = (  0.2500000  0.7500000  0.7500000  )
        56           Zn  tau(  56) = (  0.7500000  0.2500000  0.7500000  )

     number of k points=     1  Marzari-Vanderbilt smearing, width (Ry)=  0.0275
                       cart. coord. in units 2pi/alat
        k(    1) = (   0.0000000   0.0000000   0.0000000), wk =   1.0000000

                       cryst. coord.
        k(    1) = (   0.0000000   0.0000000   0.0000000), wk =   1.0000000

     Dense  grid:  1106627 G-vectors     FFT dimensions: ( 180, 180, 180)

     Smooth grid:   212985 G-vectors     FFT dimensions: (  96,  96,  96)
